5
Lattice="4.425200826665162 -3.7613578187954124e-20 0.0 -2.211855313167742 3.8327664199543476 0.0 1.3570913879027556e-15 2.350023649106596e-15 22.162984280000003" Properties=species:S:1:pos:R:3:initial_magmoms:R:1 energy=-20.104534865468775 dipole="1.5164825583631625 -3.8484624017966285 6.229837107521556e-05" free_energy=-20.104536837728546 pbc="T T F"
Bi      -0.32535534       3.09351644      13.14029932       0.00000000
Te      -0.32398279       3.09083712       7.30629336       0.00000000
Bi       4.10007661       0.53532070       9.02288333       0.00000000
Te       4.09883569       0.53806171      14.85660510       0.00000000
Te       1.88733038       1.81450636      11.08142304       0.00000000
